 Gaussian 16, Revision A.03,
 Gaussian 16:  ES64L-G16RevA.03 25-Dec-2016

 -----------------------------------------------------------------
 #P B3PW91/6-31+G(d,p) IRC(CalcFC,forward,MaxPoints=40,StepSize=4)
 -----------------------------------------------------------------

 -------
 forward
 -------
 Symbolic Z-matrix:
 Charge =  0 Multiplicity = 1

 SCF Done:  E(RB3PW91) =  -3151.60220273     A.U. after   20 cycles
 SCF Done:  E(RB3PW91) =  -3151.60222486     A.U. after   13 cycles
 SCF Done:  E(RB3PW91) =  -3151.60229100     A.U. after   13 cycles
 SCF Done:  E(RB3PW91) =  -3151.60240139     A.U. after   13 cycles
 SCF Done:  E(RB3PW91) =  -3151.60255561     A.U. after   13 cycles
 SCF Done:  E(RB3PW91) =  -3151.60275317     A.U. after   14 cycles
 SCF Done:  E(RB3PW91) =  -3151.60299328     A.U. after   14 cycles
 SCF Done:  E(RB3PW91) =  -3151.60327505     A.U. after   14 cycles
 SCF Done:  E(RB3PW91) =  -3151.60359743     A.U. after   14 cycles
 SCF Done:  E(RB3PW91) =  -3151.60395931     A.U. after   14 cycles
 SCF Done:  E(RB3PW91) =  -3151.63420779     A.U. after   14 cycles
 SCF Done:  E(RB3PW91) =  -3151.63920103     A.U. after   13 cycles
 SCF Done:  E(RB3PW91) =  -3151.64498049     A.U. after   13 cycles
 SCF Done:  E(RB3PW91) =  -3151.65133215     A.U. after   14 cycles
 SCF Done:  E(RB3PW91) =  -3151.65771072     A.U. after   14 cycles
 SCF Done:  E(RB3PW91) =  -3151.66321236     A.U. after   15 cycles
 SCF Done:  E(RB3PW91) =  -3151.66710174     A.U. after   14 cycles
 SCF Done:  E(RB3PW91) =  -3151.66718844     A.U. after   11 cycles
 SCF Done:  E(RB3PW91) =  -3151.67018541     A.U. after   13 cycles
 SCF Done:  E(RB3PW91) =  -3151.67023010     A.U. after   12 cycles

                          Input orientation:
 ---------------------------------------------------------------------
 Center     Atomic      Atomic             Coordinates (Angstroms)
 Number     Number       Type             X           Y           Z
 ---------------------------------------------------------------------
      1          6           0        3.297078    0.296395   -0.544108
      2          6           0        1.904485    0.219027   -0.483125
      3          6           0        3.967286    1.447034   -0.129810
      4          1           0        5.052073    1.487237   -0.177353
      5          6           0        1.166002    1.323778   -0.011599
      6          6           0        3.243852    2.541024    0.340041
      7          1           0        3.756350    3.443143    0.662104
      8          6           0        1.851933    2.470548    0.400645
      9          1           0        1.287507    3.325716    0.766894
     10          6           0       -0.338728    1.289105    0.051334
     11          1           0       -0.720315    2.289020    0.286117
     12          1           0       -0.737775    0.974271   -0.913579
     13          7           0       -0.870893    0.328769    1.072875
     14          6           0       -0.487281    0.724919    2.454523
     15          1           0       -1.085710    1.574170    2.798860
     16          1           0       -0.617306   -0.151743    3.092890
     17          1           0        0.568727    0.997982    2.457334
     18         34           0        1.026321   -1.345797   -1.107322
     19          6           0       -2.737477   -0.935689   -0.131772
     20          6           0       -3.035671   -0.336957   -1.510847
     21          6           0       -4.039037    0.813073   -1.415523
     22          6           0       -3.548686    1.893363   -0.449443
     23          6           0       -3.244791    1.322034    0.944579
     24          6           0       -2.362141    0.058336    0.982401
     25          1           0       -1.973497   -1.717592   -0.192067
     26          1           0       -3.652593   -1.433285    0.218300
     27          1           0       -3.430179   -1.130711   -2.156367
     28          1           0       -4.221887    1.247485   -2.405513
     29          1           0       -5.005089    0.422681   -1.062756
     30          1           0       -4.305631    2.680362   -0.344747
     31          1           0       -2.664137    2.381579   -0.875341
     32          1           0       -2.833834    2.101591    1.597951
     33          1           0       -4.200569    1.035027    1.403128
     34          1           0       -2.549504   -0.455744    1.930591
     35          1           0       -2.113041    0.004797   -1.996452
     36          1           0       -0.269610   -0.707299    0.926227
     37          8           0       -0.088264   -2.434268    2.828036
     38          8           0        0.567873   -1.780867    0.755636
     39          1           0        0.078271   -2.518368    1.849501
     40          1           0        0.798046   -2.535722    3.189578
     41          1           0        3.856509   -0.561121   -0.905152
 ---------------------------------------------------------------------

 Alpha  occ. eigenvalues -- -453.85806 -57.47689 -52.14788 -52.14682 -52.14338
 Alpha  occ. eigenvalues --  -19.09943 -19.08875 -14.40101 -10.23328 -10.23207
 Alpha  occ. eigenvalues --  -10.21483 -10.20934 -10.20857 -10.19917 -10.19699
 Alpha  occ. eigenvalues --  -10.19506 -10.19459 -10.19349 -10.18609 -10.18075
 Alpha  occ. eigenvalues --  -10.18044 -10.17781  -7.72633  -5.76745  -5.76338
 Alpha  occ. eigenvalues --   -5.75224  -2.12122  -2.12069  -2.11146  -2.10828
 Alpha  occ. eigenvalues --   -2.10625  -0.98371  -0.96624  -0.89054  -0.87744
 Alpha  occ. eigenvalues --   -0.84568  -0.79762  -0.77331  -0.76329  -0.76127
 Alpha  occ. eigenvalues --   -0.72792  -0.67970  -0.66452  -0.63316  -0.62276
 Alpha  occ. eigenvalues --   -0.61541  -0.58379  -0.57065  -0.53526  -0.51664
 Alpha  occ. eigenvalues --   -0.50696  -0.49379  -0.48229  -0.47700  -0.47198
 Alpha  occ. eigenvalues --   -0.45957  -0.45794  -0.44406  -0.43078  -0.42269
 Alpha  occ. eigenvalues --   -0.40999  -0.40876  -0.40062  -0.39181  -0.39107
 Alpha  occ. eigenvalues --   -0.39020  -0.38115  -0.37650  -0.36807  -0.36144
 Alpha  occ. eigenvalues --   -0.35623  -0.33928  -0.32709  -0.32149  -0.31938
 Alpha  occ. eigenvalues --   -0.31097  -0.28022  -0.27164  -0.26794  -0.25172
 Alpha  occ. eigenvalues --   -0.24160  -0.20021
 Alpha virt. eigenvalues --   -0.05783  -0.02892  -0.01065  -0.00210   0.00638
 Alpha virt. eigenvalues --    0.01700   0.01899   0.02502   0.03231   0.03574
 Alpha virt. eigenvalues --    0.04146   0.04511   0.04874   0.05498   0.06158

 Mulliken charges:
               1
     1  C   -0.360792
     2  C   -0.465407
     3  C    0.028815
     4  H    0.156364
     5  C    0.702372
     6  C   -0.322549
     7  H    0.155621
     8  C   -0.024921
     9  H    0.140330
    10  C   -0.668885
    11  H    0.152375
    12  H    0.189535
    13  N   -0.603945
    14  C   -0.392420
    15  H    0.155393
    16  H    0.241330
    17  H    0.185094
    18  Se   0.182866
    19  C   -0.498663
    20  C   -0.000617
    21  C   -0.570363
    22  C   -0.014421
    23  C   -0.521217
    24  C    0.286275
    25  H    0.195932
    26  H    0.166182
    27  H    0.157281
    28  H    0.155341
    29  H    0.156340
    30  H    0.155667
    31  H    0.152323
    32  H    0.151683
    33  H    0.173611
    34  H    0.177860
    35  H    0.157486
    36  H    0.484167
    37  O   -0.740222
    38  O   -0.649010
    39  H    0.457134
    40  H    0.347580
    41  H    0.168473
 Sum of Mulliken charges =  -0.00000

 Dipole moment (field-independent basis, Debye):
    X=             -1.5186    Y=              5.6801    Z=             -0.5633  Tot=              5.9065
 Quadrupole moment (field-independent basis, Debye-Ang):
   XX=           -108.1482   YY=           -127.7961   ZZ=           -127.6120
   XY=              0.3079   XZ=              2.4356   YZ=              9.9908

  Exact polarizability:   0.000   0.000   0.000   0.000   0.000   0.000
 Approx polarizability: 333.559  19.863 329.495 -17.400  12.902 291.967

 Normal termination of Gaussian 16 at Sat Aug 20 11:18:01 2022.
